 Q-Chem 4.3, Q-Chem, Inc., Pleasanton, CA (2015)
 Q-Chem 4.3.0 for Intel X86 Linux

User input:
--------------------------------------------------------------
$comment
XAS calculation for the 2b valence excited for water using TDDFT SRC1 + 6-311+G* basis set
$end

$molecule
0 1
C    -0.696126    -1.136419     0.000000
C     0.696126    -1.136419     0.000000
N    -1.417532     0.000000     0.000000
N     1.417532     0.000000     0.000000
C     0.696126     1.136419     0.000000
C    -0.696126     1.136419     0.000000
H     1.250625     2.067160     0.000000
H    -1.250625     2.067160     0.000000
H     1.250625    -2.067160     0.000000
H    -1.250625    -2.067160     0.000000
$end

$rem
JOBTYPE           sp
METHOD            B3LYP
BASIS             6-311+G*
UNRESTRICTED TRUE
$end

--------------------------------------------------------------

    7    -264.3800713155      4.28E-06 Convergence criterion met
 Total energy in the final basis set = -264.3800713155
 Total job time:  11.17s(wall), 10.18s(cpu)
        *  Thank you very much for using Q-Chem.  Have a nice day.  *
 Q-Chem 4.3, Q-Chem, Inc., Pleasanton, CA (2015)
 Q-Chem 4.3.0 for Intel X86 Linux

User input:
--------------------------------------------------------------

$molecule
read
$end

$rem
JOBTYPE           SP
METHOD            B3LYP
BASIS             6-311+G*
SCF_GUESS         READ
MOM_START         1
UNRESTRICTED      TRUE
$end

$swap_occupied_virtual
beta   21  22        !beta electron in RHF HOMO moved to RHF LUMO
$end

--------------------------------------------------------------

    6    -264.2486004716      7.05E-06 Convergence criterion met
 Total energy in the final basis set = -264.2486004716
 Total job time:  9.82s(wall), 9.08s(cpu)
        *  Thank you very much for using Q-Chem.  Have a nice day.  *
 Q-Chem 4.3, Q-Chem, Inc., Pleasanton, CA (2015)
 Q-Chem 4.3.0 for Intel X86 Linux

User input:
--------------------------------------------------------------

$molecule
read
$end

$rem
exchange b3lyp
basis 6-311+G*
cis_n_roots 30
cis_triplets false
trnss true                      !reduced single excitation space used
trtype 3                        !to be defined in solute keyword, so oribtal 1 (1s O)
n_sol 1
unrestricted true
mom_start 1
scf_guess read
$end

$solute
1
$end

--------------------------------------------------------------

             Standard Nuclear Orientation (Angstroms)
    I     Atom           X                Y                Z
 ----------------------------------------------------------------
    1      C       1.1364190000    -0.6961260000     0.0000000000
    2      C       1.1364190000     0.6961260000     0.0000000000
    3      N       0.0000000000    -1.4175320000     0.0000000000
    4      N       0.0000000000     1.4175320000     0.0000000000
    5      C      -1.1364190000     0.6961260000     0.0000000000
    6      C      -1.1364190000    -0.6961260000     0.0000000000
    7      H      -2.0671600000     1.2506250000     0.0000000000
    8      H      -2.0671600000    -1.2506250000     0.0000000000
    9      H       2.0671600000     1.2506250000     0.0000000000
   10      H       2.0671600000    -1.2506250000     0.0000000000
 ----------------------------------------------------------------

   10    -264.2486769886      3.48E-09 Convergence criterion met
 Total energy in the final basis set = -264.2486769886

         TDDFT/TDA Excitation Energies
 ---------------------------------------------------

 Excited state   1: excitation energy (eV) =  382.3096
    Total energy for state   1:   -250.199056109197
    <S**2>     :  1.0091
    Trans. Mom.:  0.0000 X  -0.0511 Y   0.0000 Z
    Strength   :  0.0244
    D(  1) --> V(  1) amplitude =  0.9996 beta

 Excited state   2: excitation energy (eV) =  386.4030
    Total energy for state   2:   -250.048628137230
    <S**2>     :  1.0084
    Trans. Mom.:  0.0000 X   0.0000 Y   0.0000 Z
    Strength   :  0.0000
    D(  1) --> V(  1) amplitude =  0.9973 alpha

 Excited state   3: excitation energy (eV) =  387.7719
    Total energy for state   3:   -249.998321106727
    <S**2>     :  2.0095
    Trans. Mom.:  0.0000 X   0.0000 Y   0.0000 Z
    Strength   :  0.0000
    D(  1) --> V(  2) amplitude =  1.0000 beta

 Excited state   4: excitation energy (eV) =  387.9219
    Total energy for state   4:   -249.992808366649
    <S**2>     :  2.0065
    Trans. Mom.:  0.0000 X   0.0000 Y   0.0000 Z
    Strength   :  0.0000
    D(  1) --> V(  2) amplitude =  0.9991 alpha

 Excited state   5: excitation energy (eV) =  389.4685
    Total energy for state   5:   -249.935973102268
    <S**2>     :  2.6383
    Trans. Mom.:  0.0000 X   0.0011 Y   0.0000 Z
    Strength   :  0.0000
    D(  1) --> V(  3) amplitude =  0.9373 alpha
    D(  1) --> V(  3) amplitude =  0.3330 beta

 Excited state   6: excitation energy (eV) =  389.5049
    Total energy for state   6:   -249.934636109382
    <S**2>     :  1.3772
    Trans. Mom.:  0.0000 X  -0.0007 Y   0.0000 Z
    Strength   :  0.0000
    D(  1) --> V(  3) amplitude = -0.3356 alpha
    D(  1) --> V(  3) amplitude =  0.9398 beta

 Excited state   7: excitation energy (eV) =  389.9809
    Total energy for state   7:   -249.917143164903
    <S**2>     :  2.0079
    Trans. Mom.:  0.0000 X   0.0000 Y   0.0000 Z
    Strength   :  0.0000
    D(  1) --> V(  4) amplitude =  0.9989 alpha

 Excited state   8: excitation energy (eV) =  390.0098
    Total energy for state   8:   -249.916080248055
    <S**2>     :  2.0081
    Trans. Mom.:  0.0000 X   0.0000 Y   0.0000 Z
    Strength   :  0.0000
    D(  1) --> V(  4) amplitude =  0.9999 beta

 Excited state   9: excitation energy (eV) =  390.2855
    Total energy for state   9:   -249.905947468062
    <S**2>     :  2.4772
    Trans. Mom.:  0.0000 X   0.0000 Y   0.0000 Z
    Strength   :  0.0000
    D(  1) --> V(  5) amplitude =  0.9680 alpha
    D(  1) --> V(  5) amplitude =  0.2423 beta

 Excited state  10: excitation energy (eV) =  390.3502
    Total energy for state  10:   -249.903569100876
    <S**2>     :  1.5373
    Trans. Mom.:  0.0000 X   0.0000 Y   0.0000 Z
    Strength   :  0.0000
    D(  1) --> V(  5) amplitude = -0.2427 alpha
    D(  1) --> V(  5) amplitude =  0.9698 beta

 Excited state  11: excitation energy (eV) =  390.6533
    Total energy for state  11:   -249.892433018017
    <S**2>     :  2.8909
    Trans. Mom.:  0.0000 X  -0.0007 Y   0.0000 Z
    Strength   :  0.0000
    D(  1) --> V(  7) amplitude =  0.8470 alpha
    D(  1) --> V(  7) amplitude =  0.5160 beta

 Excited state  12: excitation energy (eV) =  390.6595
    Total energy for state  12:   -249.892204846033
    <S**2>     :  2.5187
    Trans. Mom.:  0.0000 X   0.0000 Y   0.0256 Z
    Strength   :  0.0063
    D(  1) --> V( 10) amplitude =  0.2175 alpha
    D(  1) --> V( 14) amplitude =  0.1538 alpha
    D(  1) --> V(  9) amplitude =  0.8759 beta
    D(  1) --> V( 14) amplitude =  0.4002 beta

 Excited state  13: excitation energy (eV) =  390.7761
    Total energy for state  13:   -249.887919785492
    <S**2>     :  2.1800
    Trans. Mom.: -0.0061 X   0.0000 Y   0.0000 Z
    Strength   :  0.0004
    D(  1) --> V(  6) amplitude =  0.9944 alpha

 Excited state  14: excitation energy (eV) =  390.7850
    Total energy for state  14:   -249.887592853072
    <S**2>     :  1.1218
    Trans. Mom.:  0.0000 X  -0.0013 Y   0.0000 Z
    Strength   :  0.0000
    D(  1) --> V(  7) amplitude = -0.5153 alpha
    D(  1) --> V(  7) amplitude =  0.8493 beta

 Excited state  15: excitation energy (eV) =  390.8069
    Total energy for state  15:   -249.886786011119
    <S**2>     :  1.8357
    Trans. Mom.:  0.0053 X   0.0000 Y   0.0000 Z
    Strength   :  0.0003
    D(  1) --> V(  6) amplitude =  0.9962 beta

 Excited state  16: excitation energy (eV) =  390.8907
    Total energy for state  16:   -249.883707462203
    <S**2>     :  2.0182
    Trans. Mom.:  0.0000 X   0.0000 Y   0.0000 Z
    Strength   :  0.0000
    D(  1) --> V(  8) amplitude =  1.0000 beta

 Excited state  17: excitation energy (eV) =  390.9114
    Total energy for state  17:   -249.882946133990
    <S**2>     :  1.9977
    Trans. Mom.:  0.0000 X   0.0000 Y   0.0000 Z
    Strength   :  0.0000
    D(  1) --> V(  8) amplitude =  0.9990 alpha

 Excited state  18: excitation energy (eV) =  391.1792
    Total energy for state  18:   -249.873104686530
    <S**2>     :  1.4934
    Trans. Mom.:  0.0000 X   0.0000 Y  -0.0489 Z
    Strength   :  0.0229
    D(  1) --> V( 10) amplitude =  0.8734 alpha
    D(  1) --> V( 14) amplitude =  0.3991 alpha
    D(  1) --> V(  9) amplitude = -0.2582 beta

 Excited state  19: excitation energy (eV) =  391.4007
    Total energy for state  19:   -249.864964017040
    <S**2>     :  2.8153
    Trans. Mom.:  0.0000 X   0.0007 Y   0.0000 Z
    Strength   :  0.0000
    D(  1) --> V(  9) amplitude = -0.4540 alpha
    D(  1) --> V( 10) amplitude =  0.8893 beta

 Excited state  20: excitation energy (eV) =  391.4274
    Total energy for state  20:   -249.863983974673
    <S**2>     :  1.1997
    Trans. Mom.:  0.0000 X   0.0014 Y   0.0000 Z
    Strength   :  0.0000
    D(  1) --> V(  9) amplitude =  0.8857 alpha
    D(  1) --> V( 10) amplitude =  0.4511 beta

 Excited state  21: excitation energy (eV) =  391.7050
    Total energy for state  21:   -249.853784170576
    <S**2>     :  2.0082
    Trans. Mom.:  0.0000 X   0.0000 Y   0.0000 Z
    Strength   :  0.0000
    D(  1) --> V( 11) amplitude =  1.0000 beta

 Excited state  22: excitation energy (eV) =  391.7352
    Total energy for state  22:   -249.852671923390
    <S**2>     :  2.0078
    Trans. Mom.:  0.0000 X   0.0000 Y   0.0000 Z
    Strength   :  0.0000
    D(  1) --> V( 11) amplitude =  0.9999 alpha

 Excited state  23: excitation energy (eV) =  392.0083
    Total energy for state  23:   -249.842634972612
    <S**2>     :  2.7401
    Trans. Mom.:  0.0000 X   0.0000 Y   0.0000 Z
    Strength   :  0.0000
    D(  1) --> V( 12) amplitude =  0.9115 alpha
    D(  1) --> V( 12) amplitude =  0.4015 beta

 Excited state  24: excitation energy (eV) =  392.1057
    Total energy for state  24:   -249.839056035699
    <S**2>     :  1.2724
    Trans. Mom.:  0.0000 X   0.0000 Y   0.0000 Z
    Strength   :  0.0000
    D(  1) --> V( 12) amplitude = -0.4020 alpha
    D(  1) --> V( 12) amplitude =  0.9152 beta

 Excited state  25: excitation energy (eV) =  392.1174
    Total energy for state  25:   -249.838626083852
    <S**2>     :  2.5294
    Trans. Mom.:  0.0000 X   0.0000 Y   0.0000 Z
    Strength   :  0.0000
    D(  1) --> V( 13) amplitude =  0.9594 alpha
    D(  1) --> V( 13) amplitude =  0.2714 beta

 Excited state  26: excitation energy (eV) =  392.1210
    Total energy for state  26:   -249.838494669173
    <S**2>     :  2.3076
    Trans. Mom.:  0.0000 X   0.0000 Y   0.0091 Z
    Strength   :  0.0008
    D(  1) --> V(  9) amplitude = -0.4070 beta
    D(  1) --> V( 14) amplitude =  0.9007 beta

 Excited state  27: excitation energy (eV) =  392.1556
    Total energy for state  27:   -249.837223735222
    <S**2>     :  1.4852
    Trans. Mom.:  0.0000 X   0.0000 Y   0.0000 Z
    Strength   :  0.0000
    D(  1) --> V( 13) amplitude = -0.2715 alpha
    D(  1) --> V( 13) amplitude =  0.9616 beta

 Excited state  28: excitation energy (eV) =  392.2809
    Total energy for state  28:   -249.832619312602
    <S**2>     :  1.7046
    Trans. Mom.:  0.0000 X   0.0000 Y  -0.0261 Z
    Strength   :  0.0066
    D(  1) --> V( 10) amplitude = -0.4183 alpha
    D(  1) --> V( 14) amplitude =  0.8948 alpha
    D(  1) --> V( 14) amplitude = -0.1528 beta

 Excited state  29: excitation energy (eV) =  392.9780
    Total energy for state  29:   -249.807000271405
    <S**2>     :  2.0084
    Trans. Mom.:  0.0000 X   0.0000 Y   0.0000 Z
    Strength   :  0.0000
    D(  1) --> V( 15) amplitude =  0.9994 beta

 Excited state  30: excitation energy (eV) =  393.0111
    Total energy for state  30:   -249.805783221183
    <S**2>     :  2.0076
    Trans. Mom.:  0.0000 X   0.0000 Y   0.0000 Z
    Strength   :  0.0000
    D(  1) --> V( 15) amplitude =  0.9982 alpha

 ---------------------------------------------------

             Orbital Energies (a.u.) and Symmetries
 --------------------------------------------------------------

 Alpha MOs, Unrestricted
 -- Occupied --
-14.343 -14.343 -10.231 -10.231 -10.230 -10.230  -0.990  -0.918
  1 B2u   1 Ag    1 B3u   2 Ag    2 B2u   1 B1g   3 Ag    3 B2u
 -0.790  -0.676  -0.671  -0.549  -0.532  -0.505  -0.456  -0.422
  2 B3u   4 Ag    2 B1g   5 Ag    3 B3u   4 B2u   4 B3u   1 B1u
 -0.405  -0.359  -0.326  -0.295  -0.279
  3 B1g   5 B2u   1 B3g   6 Ag    1 B2g

 Beta MOs, Unrestricted
 -- Occupied --
-14.343 -14.343 -10.230 -10.230 -10.230 -10.230  -0.990  -0.918
  1 B2u   1 Ag    1 B3u   2 Ag    2 B2u   1 B1g   3 Ag    3 B2u
 -0.789  -0.672  -0.667  -0.537  -0.524  -0.501  -0.449  -0.443
  2 B3u   4 Ag    2 B1g   5 Ag    3 B3u   4 B2u   4 B3u   1 B1u
 -0.402  -0.360  -0.302  -0.295  -0.138
  3 B1g   1 B3g   5 B2u   1 B2g   2 B1u

          Ground-State Mulliken Net Atomic Charges

     Atom                 Charge (a.u.)    Spin (a.u.)
  --------------------------------------------------------
      1 C                    -0.268803      -0.055749
      2 C                    -0.268803      -0.055749
      3 N                     0.053704       0.035822
      4 N                     0.053704       0.035822
      5 C                    -0.268803      -0.055749
      6 C                    -0.268803      -0.055749
      7 H                     0.241951       0.037838
      8 H                     0.241951       0.037838
      9 H                     0.241951       0.037838
     10 H                     0.241951       0.037838
  --------------------------------------------------------
  Sum of atomic charges =     0.000000

                    Cartesian Multipole Moments
 -----------------------------------------------------------------
    Charge (ESU x 10^10)
                 0.0000
    Dipole Moment (Debye)
         X       0.0000      Y       0.0000      Z       0.0000
       Tot       0.0000
    Quadrupole Moments (Debye-Ang)
        XX     -27.0168     XY       0.0000     YY     -38.2297
        XZ       0.0000     YZ       0.0000     ZZ     -38.3667

 Total job time:  163.06s(wall), 161.82s(cpu)
        *  Thank you very much for using Q-Chem.  Have a nice day.  *
