 Q-Chem 4.3, Q-Chem, Inc., Pleasanton, CA (2015)
 Q-Chem 4.3.0 for Intel X86 Linux

User input:
--------------------------------------------------------------
$comment
XAS calculation for the 2b valence excited for water using cvs-adc(2)-x + 6-311+G* basis set
job 1 - determination of HF orbitals
$end

$molecule
0 1
C    -0.696126    -1.136419     0.000000
C     0.696126    -1.136419     0.000000
N    -1.417532     0.000000     0.000000
N     1.417532     0.000000     0.000000
C     0.696126     1.136419     0.000000
C    -0.696126     1.136419     0.000000
H     1.250625     2.067160     0.000000
H    -1.250625     2.067160     0.000000
H     1.250625    -2.067160     0.000000
H    -1.250625    -2.067160     0.000000
$end

$rem
jobtype      sp
exchange     hf
basis        6-311+G*
unrestricted true
$end

--------------------------------------------------------------

    8    -262.7338701910      3.16E-06 Convergence criterion met
 Total energy in the final basis set = -262.7338701910
 Total job time:  2.79s(wall), 14.01s(cpu)
        *  Thank you very much for using Q-Chem.  Have a nice day.  *
 Q-Chem 4.3, Q-Chem, Inc., Pleasanton, CA (2015)
 Q-Chem 4.3.0 for Intel X86 Linux

User input:
--------------------------------------------------------------

$comment
job2 - MOM calculation for 2b excited state wavefuntion
$end

$molecule
read
$end

$rem
JOBTYPE           SP
EXCHANGE          HF
BASIS             6-311+G*
SCF_GUESS         READ
MOM_START         1
UNRESTRICTED      TRUE
$end

$swap_occupied_virtual
beta   21  22	!beta electron in RHF HOMO moved to RHF LUMO
$end

--------------------------------------------------------------

    8    -262.4996241338      4.50E-06 Convergence criterion met
 Total energy in the final basis set = -262.4996241338
 Total job time:  2.90s(wall), 13.87s(cpu)
        *  Thank you very much for using Q-Chem.  Have a nice day.  *
 Q-Chem 4.3, Q-Chem, Inc., Pleasanton, CA (2015)
 Q-Chem 4.3.0 for Intel X86 Linux

User input:
--------------------------------------------------------------

$comment
job3 - cvs-adc(2)-x calculation with mom to prevent collapse to ground state
$end

$molecule
read
$end

$rem
mem_total 3000
mem_static 1500
method cvs-adc(2)-x
basis 6-311+G*
ee_states 6
cc_rest_occ 1                  !only excitations from the 1st orbital (O 1s)
unrestricted  true
max_scf_cycles 200
mom_start 1
scf_guess read
symmetry off
$end

--------------------------------------------------------------

             Standard Nuclear Orientation (Angstroms)
    I     Atom           X                Y                Z
 ----------------------------------------------------------------
    1      C       1.1364190000    -0.6961260000     0.0000000000
    2      C       1.1364190000     0.6961260000     0.0000000000
    3      N       0.0000000000    -1.4175320000     0.0000000000
    4      N       0.0000000000     1.4175320000     0.0000000000
    5      C      -1.1364190000     0.6961260000     0.0000000000
    6      C      -1.1364190000    -0.6961260000     0.0000000000
    7      H      -2.0671600000     1.2506250000     0.0000000000
    8      H      -2.0671600000    -1.2506250000     0.0000000000
    9      H       2.0671600000     1.2506250000     0.0000000000
   10      H       2.0671600000    -1.2506250000     0.0000000000
 ----------------------------------------------------------------

    8    -262.4996369937      2.93E-09 Convergence criterion met
 Total energy in the final basis set = -262.4996369937
  Term symbol:  1 (-) B2u                                   R^2 =  6.27128e-14
  Excitation energy:                                             404.229181 eV
  Term symbol:  1 (-) B1g                                   R^2 =  2.36085e-13
  Excitation energy:                                             407.109809 eV
  Term symbol:  2 (-) B1g                                   R^2 =  2.29083e-13
  Excitation energy:                                             407.976782 eV
  Term symbol:  2 (-) Ag                                    R^2 =  3.89216e-12
  Excitation energy:                                             408.219555 eV
  Term symbol:  1 (-) B3g                                   R^2 =  6.51470e-13
  Excitation energy:                                             408.389973 eV
  Term symbol:  2 (-) B3g                                   R^2 =  6.97079e-13
  Excitation energy:                                             409.847035 eV
  Term symbol:  1 (-) Au                                    R^2 =  1.68267e-12
  Excitation energy:                                             410.053468 eV
  Term symbol:  3 (-) Ag                                    R^2 =  1.14440e-12
  Excitation energy:                                             410.107708 eV
  Term symbol:  2 (-) Au                                    R^2 =  6.46660e-10
  Excitation energy:                                             412.343267 eV
  Excited state 10 (B1u)                                           [converged]
  Term symbol:  1 (-) B3u                                   R^2 =  4.33265e-13
  Excitation energy:                                             412.426262 eV
  Excited state 11 (B3u)                                           [converged]
  Term symbol:  1 (-) B1u                                   R^2 =  4.22437e-13
  Excitation energy:                                             412.887691 eV
  Excited state 12 (Ag)                                            [converged]
  Term symbol:  1 (-) B2g                                   R^2 =  4.67649e-12
  Excitation energy:                                             413.019363 eV
  Excited state 13 (B1g)                                           [converged]
  Term symbol:  3 (-) B3g                                   R^2 =  6.47962e-11
  Excitation energy:                                             413.084530 eV
  Excited state 14 (B1g)                                           [converged]
  Term symbol:  4 (-) B3g                                   R^2 =  2.08556e-11
  Excitation energy:                                             413.292496 eV
  Excited state 15 (B1u)                                           [converged]
  Term symbol:  2 (-) B3u                                   R^2 =  3.84338e-13
  Excitation energy:                                             413.315618 eV
  Excited state 16 (B2u)                                           [converged]
  Term symbol:  3 (-) Au                                    R^2 =  1.72445e-08
  Excitation energy:                                             413.411832 eV
  Excited state 17 (B3g)                                           [converged]
  Excitation energy:                                             415.118107 eV
  Excited state 36 (B1u)                                           [converged]
  Term symbol:  4 (-) B3u                                   R^2 =  1.07699e-12
  Excitation energy:                                             415.281669 eV
  Excited state 37 (B2g)                                           [converged]
  Term symbol:  4 (-) Ag                                    R^2 =  1.27355e-09
  Excitation energy:                                             415.300036 eV
  Excited state 38 (Ag)                                        [not converged]
  Term symbol:  6 (-) B2g                                   R^2 =  7.28175e-05
  Excitation energy:                                             415.440536 eV
  Excited state 39 (B1g)                                       [not converged]
  Term symbol:  5 (-) B3g                                   R^2 =  3.26204e-04
  Excitation energy:                                             415.449750 eV
  Excited state 40 (B1u)                                           [converged]
  Term symbol:  5 (-) B3u                                   R^2 =  1.13273e-12
  Excitation energy:                                             415.480266 eV
  Excited state 41 (B1g)                                       [not converged]
  Term symbol:  6 (-) B3g                                   R^2 =  6.85457e-04
  Excitation energy:                                             415.700271 eV
  Excited state 42 (Au)                                        [not converged]
  Term symbol:  6 (-) B2u                                   R^2 =  1.92830e-06
  Excitation energy:                                             416.003753 eV
  Excited state 43 (B2g)                                           [converged]
  Term symbol:  5 (-) Ag                                    R^2 =  1.27454e-07
  Excitation energy:                                             416.005268 eV
  Excited state 44 (B2g)                                           [converged]
  Term symbol:  6 (-) Ag                                    R^2 =  9.53762e-07
  Excitation energy:                                             416.249370 eV
  Excited state 45 (B1u)                                       [not converged]
  Term symbol:  6 (-) B3u                                   R^2 =  2.06914e-04
  Excitation energy:                                             416.376798 eV
  Excited state 46 (B3u)                                       [not converged]
  Term symbol:  5 (-) B1u                                   R^2 =  2.86300e-06
  Excitation energy:                                             416.432196 eV
  Excited state 47 (B2g)                                       [not converged]
  Term symbol:  7 (-) Ag                                    R^2 =  1.13468e-05
  Excitation energy:                                             416.663226 eV
  Excited state 48 (B3u)                                       [not converged]
  Term symbol:  6 (-) B1u                                   R^2 =  6.35319e-05
  Excitation energy:                                             416.673667 eV

             Orbital Energies (a.u.) and Symmetries
 --------------------------------------------------------------

 Alpha MOs, Unrestricted
 -- Occupied --
-15.662 -15.662 -11.403 -11.403 -11.402 -11.402  -1.399  -1.292
  1 B2u   1 Ag    1 B3u   2 Ag    2 B2u   1 B1g   3 Ag    3 B2u
 -1.177  -1.010  -0.980  -0.818  -0.798  -0.766  -0.711  -0.673
  2 B3u   4 Ag    2 B1g   5 Ag    3 B3u   4 B2u   4 B3u   1 B1u
 -0.633  -0.564  -0.507  -0.488  -0.487
  3 B1g   5 B2u   1 B2g   1 B3g   6 Ag

 Beta MOs, Unrestricted
 -- Occupied --
-15.672 -15.672 -11.395 -11.395 -11.394 -11.394  -1.395  -1.311
  1 B2u   1 Ag    1 B3u   2 Ag    2 B2u   1 B1g   3 Ag    3 B2u
 -1.125  -0.994  -0.963  -0.815  -0.795  -0.759  -0.702  -0.634
  2 B3u   4 Ag    2 B1g   5 Ag    3 B3u   4 B2u   4 B3u   3 B1g
 -0.617  -0.574  -0.540  -0.495  -0.083
  1 B1u   5 B2u   1 B3g   6 Ag    7 Ag

          Ground-State Mulliken Net Atomic Charges

     Atom                 Charge (a.u.)    Spin (a.u.)
  --------------------------------------------------------
      1 C                    -0.639795      -0.085037
      2 C                    -0.639795      -0.085037
      3 N                     0.474026       0.100421
      4 N                     0.474026       0.100421
      5 C                    -0.639795      -0.085037
      6 C                    -0.639795      -0.085037
      7 H                     0.402782       0.034826
      8 H                     0.402782       0.034826
      9 H                     0.402782       0.034826
     10 H                     0.402782       0.034826
  --------------------------------------------------------
  Sum of atomic charges =     0.000000

                    Cartesian Multipole Moments
 -----------------------------------------------------------------
    Charge (ESU x 10^10)
                 0.0000
    Dipole Moment (Debye)
         X       0.0000      Y       0.0000      Z       0.0000
       Tot       0.0000
    Quadrupole Moments (Debye-Ang)
        XX     -39.4385     XY       0.0000     YY     -53.8582
        XZ       0.0000     YZ       0.0000     ZZ     -51.8169

 Total job time:  7900.78s(wall), 22954.50s(cpu)
        *  Thank you very much for using Q-Chem.  Have a nice day.  *
