 Q-Chem 4.3, Q-Chem, Inc., Pleasanton, CA (2015)
 Q-Chem 4.3.0 for Intel X86 Linux

User input:
--------------------------------------------------------------
$comment
job3 - cvs-adc(2)-x calculation with mom to prevent collapse to ground state
$end

$molecule
0 1
C    -0.696126    -1.136419     0.000000
C     0.696126    -1.136419     0.000000
N    -1.417532     0.000000     0.000000
N     1.417532     0.000000     0.000000
C     0.696126     1.136419     0.000000
C    -0.696126     1.136419     0.000000
H     1.250625     2.067160     0.000000
H    -1.250625     2.067160     0.000000
H     1.250625    -2.067160     0.000000
H    -1.250625    -2.067160     0.000000
$end

$rem
mem_total 3000
mem_static 1500
method cvs-adc(2)-x
basis 6-311+G*
ee_states 6
cc_rest_occ 1                  !only excitations from the 1st orbital (N 1s)
unrestricted  true
max_scf_cycles 200
mom_start 1
symmetry off
$end

--------------------------------------------------------------

             Standard Nuclear Orientation (Angstroms)
    I     Atom           X                Y                Z
 ----------------------------------------------------------------
    1      C       1.1364190000    -0.6961260000     0.0000000000
    2      C       1.1364190000     0.6961260000     0.0000000000
    3      N       0.0000000000    -1.4175320000     0.0000000000
    4      N       0.0000000000     1.4175320000     0.0000000000
    5      C      -1.1364190000     0.6961260000     0.0000000000
    6      C      -1.1364190000    -0.6961260000     0.0000000000
    7      H      -2.0671600000     1.2506250000     0.0000000000
    8      H      -2.0671600000    -1.2506250000     0.0000000000
    9      H       2.0671600000     1.2506250000     0.0000000000
   10      H       2.0671600000    -1.2506250000     0.0000000000
 ----------------------------------------------------------------

   12    -262.7338697771      3.88E-09 Convergence criterion met
 Total energy in the final basis set = -262.7338697771
  Term symbol:  1 (-) B3g                                   R^2 =  1.27157e-12
  Excitation energy:                                             407.280456 eV
  Term symbol:  2 (-) B3g                                   R^2 =  7.64716e-13
  Excitation energy:                                             408.014025 eV
  Term symbol:  1 (-) B2g                                   R^2 =  3.57023e-13
  Excitation energy:                                             409.463605 eV
  Term symbol:  2 (-) B2g                                   R^2 =  9.83446e-13
  Excitation energy:                                             409.563575 eV
  Term symbol:  1 (-) B2u                                   R^2 =  1.79616e-09
  Excitation energy:                                             411.499253 eV
  Term symbol:  2 (-) B2u                                   R^2 =  5.18637e-10
  Excitation energy:                                             411.534492 eV
  Term symbol:  1 (-) B1g                                   R^2 =  3.89646e-10
  Excitation energy:                                             412.202292 eV
  Term symbol:  2 (-) B1g                                   R^2 =  4.08873e-10
  Excitation energy:                                             412.207048 eV
  Term symbol:  1 (-) B1u                                   R^2 =  9.75534e-13
  Excitation energy:                                             412.605820 eV
  Excited state 10 (Ag)                                            [converged]
  Term symbol:  2 (-) Ag                                    R^2 =  2.06975e-08
  Excitation energy:                                             412.629988 eV
  Excited state 11 (B2u)                                           [converged]
  Term symbol:  3 (-) B2u                                   R^2 =  2.58977e-08
  Excitation energy:                                             412.633341 eV
  Excited state 12 (Ag)                                            [converged]
  Term symbol:  3 (-) Ag                                    R^2 =  1.70554e-08
  Excitation energy:                                             412.652952 eV
  Excited state 13 (B2u)                                           [converged]
  Term symbol:  4 (-) B2u                                   R^2 =  3.41102e-09
  Excitation energy:                                             412.729646 eV
  Excited state 14 (B3g)                                           [converged]
  Term symbol:  3 (-) B3g                                   R^2 =  1.22308e-10
  Excitation energy:                                             412.757036 eV
  Excited state 15 (B3g)                                           [converged]
  Term symbol:  4 (-) B3g                                   R^2 =  7.87160e-11
  Excitation energy:                                             412.766582 eV
  Excited state 16 (B1u)                                           [converged]
  Term symbol:  2 (-) B1u                                   R^2 =  1.04456e-12
  Excitation energy:                                             412.972004 eV
  Excited state 17 (B3u)                                           [converged]
  Excitation energy:                                             415.632498 eV
  Excited state 36 (Au)                                            [converged]
  Term symbol:  4 (-) Au                                    R^2 =  4.52888e-13
  Excitation energy:                                             415.640008 eV
  Excited state 37 (B3u)                                           [converged]
  Term symbol:  3 (-) B3u                                   R^2 =  5.87218e-12
  Excitation energy:                                             415.878086 eV
  Excited state 38 (B3u)                                           [converged]
  Term symbol:  4 (-) B3u                                   R^2 =  4.36641e-12
  Excitation energy:                                             415.881662 eV
  Excited state 39 (B3g)                                           [converged]
  Term symbol:  5 (-) B3g                                   R^2 =  1.85752e-07
  Excitation energy:                                             416.724530 eV
  Excited state 40 (B3g)                                           [converged]
  Term symbol:  6 (-) B3g                                   R^2 =  9.66738e-07
  Excitation energy:                                             416.848616 eV
  Excited state 41 (B3u)                                       [not converged]
  Term symbol:  5 (-) B3u                                   R^2 =  9.25940e-06
  Excitation energy:                                             417.042547 eV
  Excited state 42 (B3u)                                       [not converged]
  Term symbol:  6 (-) B3u                                   R^2 =  7.48318e-06
  Excitation energy:                                             417.095877 eV
  Excited state 43 (B1u)                                           [converged]
  Term symbol:  5 (-) B1u                                   R^2 =  3.67864e-09
  Excitation energy:                                             417.433504 eV
  Excited state 44 (B1u)                                       [not converged]
  Term symbol:  6 (-) B1u                                   R^2 =  1.36105e-05
  Excitation energy:                                             417.753641 eV
  Excited state 45 (B2g)                                           [converged]
  Term symbol:  5 (-) B2g                                   R^2 =  2.12517e-07
  Excitation energy:                                             418.964537 eV
  Excited state 46 (B2g)                                           [converged]
  Term symbol:  6 (-) B2g                                   R^2 =  6.74865e-07
  Excitation energy:                                             419.769524 eV
  Excited state 47 (Au)                                            [converged]
  Term symbol:  5 (-) Au                                    R^2 =  4.48011e-07
  Excitation energy:                                             421.897978 eV
  Excited state 48 (Au)                                        [not converged]
  Term symbol:  6 (-) Au                                    R^2 =  3.02511e-03
  Excitation energy:                                             422.172446 eV

             Orbital Energies (a.u.) and Symmetries
 --------------------------------------------------------------

 Alpha MOs, Unrestricted
 -- Occupied --
-15.601 -15.601 -11.292 -11.292 -11.291 -11.291  -1.309  -1.220
  1 B2u   1 Ag    1 B3u   2 Ag    2 B2u   1 B1g   3 Ag    3 B2u
 -1.059  -0.909  -0.890  -0.731  -0.706  -0.682  -0.617  -0.574
  2 B3u   4 Ag    2 B1g   5 Ag    3 B3u   4 B2u   4 B3u   1 B1u
 -0.554  -0.504  -0.435  -0.419  -0.363
  3 B1g   5 B2u   1 B3g   6 Ag    1 B2g

 Beta MOs, Unrestricted
 -- Occupied --
-15.601 -15.601 -11.292 -11.292 -11.291 -11.291  -1.309  -1.220
  1 B2u   1 Ag    1 B3u   2 Ag    2 B2u   1 B1g   3 Ag    3 B2u
 -1.059  -0.909  -0.890  -0.731  -0.706  -0.682  -0.617  -0.574
  2 B3u   4 Ag    2 B1g   5 Ag    3 B3u   4 B2u   4 B3u   1 B1u
 -0.554  -0.504  -0.435  -0.419  -0.363
  3 B1g   5 B2u   1 B3g   6 Ag    1 B2g

          Ground-State Mulliken Net Atomic Charges

     Atom                 Charge (a.u.)    Spin (a.u.)
  --------------------------------------------------------
      1 C                    -0.228329       0.000000
      2 C                    -0.228329       0.000000
      3 N                    -0.049019       0.000000
      4 N                    -0.049019       0.000000
      5 C                    -0.228329       0.000000
      6 C                    -0.228329       0.000000
      7 H                     0.252838       0.000000
      8 H                     0.252838       0.000000
      9 H                     0.252838       0.000000
     10 H                     0.252838       0.000000
  --------------------------------------------------------
  Sum of atomic charges =     0.000000

                    Cartesian Multipole Moments
 -----------------------------------------------------------------
    Charge (ESU x 10^10)
                 0.0000
    Dipole Moment (Debye)
         X       0.0000      Y       0.0000      Z       0.0000
       Tot       0.0000
    Quadrupole Moments (Debye-Ang)
        XX     -26.3616     XY       0.0000     YY     -42.2923
        XZ       0.0000     YZ       0.0000     ZZ     -37.2623

 Total job time:  5964.09s(wall), 29887.63s(cpu)
        *  Thank you very much for using Q-Chem.  Have a nice day.  *
