 Q-Chem 4.3, Q-Chem, Inc., Pleasanton, CA (2015)
 Q-Chem 4.3.0 for Intel X86 Linux

User input:
--------------------------------------------------------------
$molecule
0 1
C    -0.696126    -1.136419     0.000000
C     0.696126    -1.136419     0.000000
N    -1.417532     0.000000     0.000000
N     1.417532     0.000000     0.000000
C     0.696126     1.136419     0.000000
C    -0.696126     1.136419     0.000000
H     1.250625     2.067160     0.000000
H    -1.250625     2.067160     0.000000
H     1.250625    -2.067160     0.000000
H    -1.250625    -2.067160     0.000000
$end

$rem
exchange b3lyp
basis 6-311+G*
cis_n_roots 30
cis_triplets false
trnss true                      !reduced single excitation space used
trtype 3                        !to be defined in solute keyword, so oribtal 1 (1s N)
n_sol 1
unrestricted true
mom_start 1
$end

$solute
1
$end

--------------------------------------------------------------

             Standard Nuclear Orientation (Angstroms)
    I     Atom           X                Y                Z
 ----------------------------------------------------------------
    1      C       1.1364190000    -0.6961260000     0.0000000000
    2      C       1.1364190000     0.6961260000     0.0000000000
    3      N       0.0000000000    -1.4175320000     0.0000000000
    4      N       0.0000000000     1.4175320000     0.0000000000
    5      C      -1.1364190000     0.6961260000     0.0000000000
    6      C      -1.1364190000    -0.6961260000     0.0000000000
    7      H      -2.0671600000     1.2506250000     0.0000000000
    8      H      -2.0671600000    -1.2506250000     0.0000000000
    9      H       2.0671600000     1.2506250000     0.0000000000
   10      H       2.0671600000    -1.2506250000     0.0000000000
 ----------------------------------------------------------------

   11    -264.3806345674      5.81E-09 Convergence criterion met
 Total energy in the final basis set = -264.3806345674

         TDDFT/TDA Excitation Energies
 ---------------------------------------------------

 Excited state   1: excitation energy (eV) =  385.7702
    Total energy for state   1:   -250.203840592089
    <S**2>     :  1.9932
    Trans. Mom.:  0.0000 X   0.0000 Y   0.0000 Z
    Strength   :  0.0000
    D(  1) --> V(  1) amplitude =  0.7346 alpha
    D(  1) --> V(  1) amplitude = -0.6757 beta

 Excited state   2: excitation energy (eV) =  386.2879
    Total energy for state   2:   -250.184813682936
    <S**2>     :  0.0047
    Trans. Mom.:  0.0000 X   0.0000 Y   0.0000 Z
    Strength   :  0.0000
    D(  1) --> V(  1) amplitude =  0.6752 alpha
    D(  1) --> V(  1) amplitude =  0.7366 beta

 Excited state   3: excitation energy (eV) =  387.7175
    Total energy for state   3:   -250.132279469218
    <S**2>     :  1.0219
    Trans. Mom.:  0.0000 X   0.0000 Y   0.0000 Z
    Strength   :  0.0000
    D(  1) --> V(  2) amplitude =  0.9992 alpha

 Excited state   4: excitation energy (eV) =  387.7275
    Total energy for state   4:   -250.131910249942
    <S**2>     :  0.9781
    Trans. Mom.:  0.0000 X   0.0000 Y   0.0000 Z
    Strength   :  0.0000
    D(  1) --> V(  2) amplitude =  0.9999 beta

 Excited state   5: excitation energy (eV) =  389.4870
    Total energy for state   5:   -250.067248803574
    <S**2>     :  1.8555
    Trans. Mom.:  0.0000 X   0.0015 Y   0.0000 Z
    Strength   :  0.0000
    D(  1) --> V(  3) amplitude =  0.8646 alpha
    D(  1) --> V(  3) amplitude = -0.4891 beta

 Excited state   6: excitation energy (eV) =  389.5148
    Total energy for state   6:   -250.066230141485
    <S**2>     :  0.1438
    Trans. Mom.:  0.0000 X   0.0018 Y   0.0000 Z
    Strength   :  0.0000
    D(  1) --> V(  3) amplitude =  0.4915 alpha
    D(  1) --> V(  3) amplitude =  0.8680 beta

 Excited state   7: excitation energy (eV) =  390.0104
    Total energy for state   7:   -250.048015915901
    <S**2>     :  0.9998
    Trans. Mom.:  0.0000 X   0.0000 Y   0.0000 Z
    Strength   :  0.0000
    D(  1) --> V(  4) amplitude =  0.9989 alpha

 Excited state   8: excitation energy (eV) =  390.0198
    Total energy for state   8:   -250.047671123611
    <S**2>     :  1.0002
    Trans. Mom.:  0.0000 X   0.0000 Y   0.0000 Z
    Strength   :  0.0000
    D(  1) --> V(  4) amplitude =  0.9999 beta

 Excited state   9: excitation energy (eV) =  390.3996
    Total energy for state   9:   -250.033713840568
    <S**2>     :  1.8729
    Trans. Mom.:  0.0000 X   0.0000 Y   0.0000 Z
    Strength   :  0.0000
    D(  1) --> V(  5) amplitude =  0.8597 alpha
    D(  1) --> V(  5) amplitude = -0.5070 beta

 Excited state  10: excitation energy (eV) =  390.4317
    Total energy for state  10:   -250.032533871885
    <S**2>     :  0.1266
    Trans. Mom.:  0.0000 X   0.0000 Y   0.0000 Z
    Strength   :  0.0000
    D(  1) --> V(  5) amplitude =  0.5068 alpha
    D(  1) --> V(  5) amplitude =  0.8615 beta

 Excited state  11: excitation energy (eV) =  390.6082
    Total energy for state  11:   -250.026048647474
    <S**2>     :  1.9765
    Trans. Mom.:  0.0000 X  -0.0016 Y   0.0000 Z
    Strength   :  0.0000
    D(  1) --> V(  7) amplitude =  0.7640 alpha
    D(  1) --> V(  7) amplitude = -0.6318 beta

 Excited state  12: excitation energy (eV) =  390.7213
    Total energy for state  12:   -250.021891475985
    <S**2>     :  0.0198
    Trans. Mom.:  0.0000 X   0.0007 Y   0.0000 Z
    Strength   :  0.0000
    D(  1) --> V(  7) amplitude =  0.6313 alpha
    D(  1) --> V(  7) amplitude =  0.7671 beta

 Excited state  13: excitation energy (eV) =  390.8412
    Total energy for state  13:   -250.017486221536
    <S**2>     :  1.9848
    Trans. Mom.:  0.0000 X   0.0000 Y  -0.0077 Z
    Strength   :  0.0006
    D(  1) --> V(  9) amplitude =  0.6574 alpha
    D(  1) --> V( 14) amplitude =  0.3682 alpha
    D(  1) --> V(  9) amplitude = -0.5669 beta
    D(  1) --> V( 14) amplitude = -0.3251 beta

 Excited state  14: excitation energy (eV) =  390.8576
    Total energy for state  14:   -250.016881648689
    <S**2>     :  1.3614
    Trans. Mom.:  0.0056 X   0.0000 Y   0.0000 Z
    Strength   :  0.0003
    D(  1) --> V(  6) amplitude =  0.9811 alpha
    D(  1) --> V(  6) amplitude = -0.1842 beta

 Excited state  15: excitation energy (eV) =  390.8576
    Total energy for state  15:   -250.016880396700
    <S**2>     :  1.0432
    Trans. Mom.:  0.0000 X   0.0000 Y   0.0000 Z
    Strength   :  0.0000
    D(  1) --> V(  8) amplitude =  0.9988 alpha

 Excited state  16: excitation energy (eV) =  390.8646
    Total energy for state  16:   -250.016623921029
    <S**2>     :  0.9568
    Trans. Mom.:  0.0000 X   0.0000 Y   0.0000 Z
    Strength   :  0.0000
    D(  1) --> V(  8) amplitude =  0.9995 beta

 Excited state  17: excitation energy (eV) =  390.8729
    Total energy for state  17:   -250.016320164187
    <S**2>     :  0.6383
    Trans. Mom.:  0.0060 X   0.0000 Y   0.0000 Z
    Strength   :  0.0003
    D(  1) --> V(  6) amplitude =  0.1840 alpha
    D(  1) --> V(  6) amplitude =  0.9829 beta

 Excited state  18: excitation energy (eV) =  391.1202
    Total energy for state  18:   -250.007231958433
    <S**2>     :  0.0125
    Trans. Mom.:  0.0000 X   0.0000 Y  -0.0560 Z
    Strength   :  0.0300
    D(  1) --> V(  9) amplitude =  0.5984 alpha
    D(  1) --> V( 14) amplitude =  0.2599 alpha
    D(  1) --> V(  9) amplitude =  0.6916 beta
    D(  1) --> V( 14) amplitude =  0.3073 beta

 Excited state  19: excitation energy (eV) =  391.4215
    Total energy for state  19:   -249.996158632791
    <S**2>     :  1.8881
    Trans. Mom.:  0.0000 X   0.0010 Y   0.0000 Z
    Strength   :  0.0000
    D(  1) --> V( 10) amplitude =  0.8497 alpha
    D(  1) --> V( 10) amplitude = -0.5228 beta

 Excited state  20: excitation energy (eV) =  391.4576
    Total energy for state  20:   -249.994832688304
    <S**2>     :  0.1103
    Trans. Mom.:  0.0000 X  -0.0011 Y   0.0000 Z
    Strength   :  0.0000
    D(  1) --> V( 10) amplitude =  0.5189 alpha
    D(  1) --> V( 10) amplitude =  0.8497 beta

 Excited state  21: excitation energy (eV) =  391.7200
    Total energy for state  21:   -249.985188803953
    <S**2>     :  1.0023
    Trans. Mom.:  0.0000 X   0.0000 Y   0.0000 Z
    Strength   :  0.0000
    D(  1) --> V( 11) amplitude =  0.9999 alpha

 Excited state  22: excitation energy (eV) =  391.7229
    Total energy for state  22:   -249.985083192777
    <S**2>     :  0.9977
    Trans. Mom.:  0.0000 X   0.0000 Y   0.0000 Z
    Strength   :  0.0000
    D(  1) --> V( 11) amplitude =  1.0000 beta

 Excited state  23: excitation energy (eV) =  392.0605
    Total energy for state  23:   -249.972676355267
    <S**2>     :  1.9615
    Trans. Mom.:  0.0000 X   0.0000 Y   0.0000 Z
    Strength   :  0.0000
    D(  1) --> V( 12) amplitude =  0.7883 alpha
    D(  1) --> V( 12) amplitude = -0.6091 beta

 Excited state  24: excitation energy (eV) =  392.1365
    Total energy for state  24:   -249.969882083561
    <S**2>     :  0.0355
    Trans. Mom.:  0.0000 X   0.0000 Y   0.0000 Z
    Strength   :  0.0000
    D(  1) --> V( 12) amplitude =  0.6084 alpha
    D(  1) --> V( 12) amplitude =  0.7924 beta

 Excited state  25: excitation energy (eV) =  392.1807
    Total energy for state  25:   -249.968258133998
    <S**2>     :  1.7252
    Trans. Mom.:  0.0000 X   0.0000 Y   0.0000 Z
    Strength   :  0.0000
    D(  1) --> V( 13) amplitude =  0.9151 alpha
    D(  1) --> V( 13) amplitude = -0.3959 beta

 Excited state  26: excitation energy (eV) =  392.1820
    Total energy for state  26:   -249.968212401064
    <S**2>     :  1.9942
    Trans. Mom.:  0.0000 X   0.0000 Y  -0.0022 Z
    Strength   :  0.0000
    D(  1) --> V(  9) amplitude = -0.3655 alpha
    D(  1) --> V( 14) amplitude =  0.6473 alpha
    D(  1) --> V(  9) amplitude =  0.3308 beta
    D(  1) --> V( 14) amplitude = -0.5811 beta

 Excited state  27: excitation energy (eV) =  392.2087
    Total energy for state  27:   -249.967228052258
    <S**2>     :  0.2733
    Trans. Mom.:  0.0000 X   0.0000 Y   0.0000 Z
    Strength   :  0.0000
    D(  1) --> V( 13) amplitude =  0.3955 alpha
    D(  1) --> V( 13) amplitude =  0.9177 beta

 Excited state  28: excitation energy (eV) =  392.2370
    Total energy for state  28:   -249.966190953820
    <S**2>     :  0.0058
    Trans. Mom.:  0.0000 X   0.0000 Y  -0.0275 Z
    Strength   :  0.0073
    D(  1) --> V(  9) amplitude = -0.2670 alpha
    D(  1) --> V( 14) amplitude =  0.6131 alpha
    D(  1) --> V(  9) amplitude = -0.3013 beta
    D(  1) --> V( 14) amplitude =  0.6796 beta

 Excited state  29: excitation energy (eV) =  392.9511
    Total energy for state  29:   -249.939947804086
    <S**2>     :  1.0058
    Trans. Mom.:  0.0000 X   0.0000 Y   0.0000 Z
    Strength   :  0.0000
    D(  1) --> V( 15) amplitude =  0.9986 alpha

 Excited state  30: excitation energy (eV) =  392.9578
    Total energy for state  30:   -249.939700332578
    <S**2>     :  0.9943
    Trans. Mom.:  0.0000 X   0.0000 Y   0.0000 Z
    Strength   :  0.0000
    D(  1) --> V( 15) amplitude =  0.9996 beta

 ---------------------------------------------------

             Orbital Energies (a.u.) and Symmetries
 --------------------------------------------------------------

 Alpha MOs, Unrestricted
 -- Occupied --
-14.344 -14.344 -10.230 -10.230 -10.229 -10.229  -0.994  -0.920
  1 B2u   1 Ag    1 B3u   2 Ag    2 B2u   1 B1g   3 Ag    3 B2u
 -0.792  -0.676  -0.668  -0.541  -0.529  -0.503  -0.454  -0.437
  2 B3u   4 Ag    2 B1g   5 Ag    3 B3u   4 B2u   4 B3u   1 B1u
 -0.402  -0.342  -0.326  -0.291  -0.267
  3 B1g   1 B3g   5 B2u   1 B2g   6 Ag

 Beta MOs, Unrestricted
 -- Occupied --
-14.344 -14.344 -10.230 -10.230 -10.229 -10.229  -0.994  -0.920
  1 B2u   1 Ag    1 B3u   2 Ag    2 B2u   1 B1g   3 Ag    3 B2u
 -0.792  -0.676  -0.668  -0.541  -0.529  -0.503  -0.454  -0.437
  2 B3u   4 Ag    2 B1g   5 Ag    3 B3u   4 B2u   4 B3u   1 B1u
 -0.402  -0.342  -0.326  -0.291  -0.267
  3 B1g   1 B3g   5 B2u   1 B2g   6 Ag

          Ground-State Mulliken Net Atomic Charges

     Atom                 Charge (a.u.)    Spin (a.u.)
  --------------------------------------------------------
      1 C                    -0.220857       0.000000
      2 C                    -0.220857       0.000000
      3 N                    -0.017302       0.000000
      4 N                    -0.017302       0.000000
      5 C                    -0.220857       0.000000
      6 C                    -0.220857       0.000000
      7 H                     0.229508       0.000000
      8 H                     0.229508       0.000000
      9 H                     0.229508       0.000000
     10 H                     0.229508       0.000000
  --------------------------------------------------------
  Sum of atomic charges =     0.000000

                    Cartesian Multipole Moments
 -----------------------------------------------------------------
    Charge (ESU x 10^10)
                 0.0000
    Dipole Moment (Debye)
         X       0.0000      Y       0.0000      Z       0.0000
       Tot       0.0000
    Quadrupole Moments (Debye-Ang)
        XX     -26.8948     XY       0.0000     YY     -42.1724
        XZ       0.0000     YZ       0.0000     ZZ     -36.4974

 Total job time:  103.84s(wall), 102.08s(cpu)
        *  Thank you very much for using Q-Chem.  Have a nice day.  *
